/*--------------------------------*- C++ -*----------------------------------*\
| =========                 |                                                 |
| \\      /  F ield         | OpenFOAM: The Open Source CFD Toolbox           |
|  \\    /   O peration     | Version:  2.2.1                                 |
|   \\  /    A nd           | Web:      www.OpenFOAM.org                      |
|    \\/     M anipulation  |                                                 |
\*---------------------------------------------------------------------------*/
FoamFile
{
    version     2.0;
    format      ascii;
    class       symmTensorField;
    object      values;
}
// * * * * * * * * * * * * * * * * * * * * * * * * * * * * * * * * * * * * * //


// Data on points
4
(

//minz
(0.07 -0.025 -0.005 0.035 0.001 0.055)
(0.07 -0.025 -0.005 0.035 0.001 0.055)

// maxz
(0.07 -0.025 -0.005 0.035 0.001 0.055)
(0.07 -0.025 -0.005 0.035 0.001 0.055)
)

// ************************************************************************* //
